189
	Energy:     277.2985122
H         -6.92410      -11.63659       13.74147
H         -7.26864      -11.04242       15.40234
C         -7.68659      -11.13827       14.37733
H        -12.32055      -21.46427       15.31401
H         -8.69670      -12.94624       14.85658
H        -11.54163      -19.20175       14.64571
H        -10.69764      -16.92700       14.20638
H         -8.73569      -12.74116       12.39220
H         -9.82608      -14.62409       14.08951
C         -8.97711      -11.97131       14.40794
O         -8.00877      -10.81648       11.07000
H         -6.45727       -8.84224        7.09708
H         -3.10521       -2.17900        3.74106
H         -7.87465      -10.11733       13.98425
C        -13.30870      -21.30031       14.82975
H         -7.73653      -10.83474        6.30952
C        -12.50224      -18.98983       14.12596
H        -13.26131      -21.67664       13.78457
C         -9.53310      -12.21641       12.96325
C        -11.62507      -16.63072       13.66799
H         -6.95513       -9.19595        4.67678
O         -4.52504       -3.42474        5.59949
H        -12.40843      -19.29741       13.06189
H        -14.40317      -21.68631       16.66163
N        -10.71285      -14.32554       13.66019
H        -11.47883      -16.80759       12.58076
C         -7.50236       -8.70689        6.73932
C         -4.03136       -1.92900        3.23989
C         -8.23083      -10.04769        6.91836
H         -8.17710      -10.39314        7.96928
H         -3.17927       -0.73750        1.62375
C        -14.37346      -22.07824       15.62072
C         -7.44990       -8.37434        5.23752
H         -9.57009      -11.20924       16.36721
C         -9.03661      -10.27759       11.45570
H         -6.38768       -6.32109        7.66662
C        -13.61409      -19.79513       14.82156
C        -14.04977      -23.57861       15.66486
C        -10.00132      -11.31018       15.34833
H         -6.86362       -7.44968        5.05411
C        -12.78574      -17.48231       14.21655
C         -4.07074       -1.13826        2.08800
C        -10.76594      -13.12508       13.00734
C        -11.88279      -15.14180       13.94681
O         -7.52774       -7.11355        9.77806
H        -13.69300      -19.44881       15.87617
N         -9.85226      -10.92428       12.34902
C         -5.50871       -3.09062        4.95315
H        -12.91914      -17.23041       15.29245
C         -8.24357       -7.77759        9.03828
H        -12.07628      -15.04133       15.03728
H         -8.51119       -8.23231       11.55901
C         -5.28675       -2.32793        3.69509
H         -6.02491       -4.13389        7.26915
N         -7.35794       -6.31571        7.31436
C         -8.15340       -7.52924        7.52725
C         -9.28534       -8.82795       11.02942
H        -10.91694      -11.93200       15.43222
N         -9.14573       -8.65506        9.58356
H         -9.29212       -9.96599        6.59959
H        -10.28352      -10.29765       14.99310
H        -15.37221      -21.92808       15.15491
H         -8.47512       -8.23265        4.83241
H        -14.58682      -19.61229       14.31439
C         -6.99022       -3.90446        6.76836
O        -11.82158      -12.73347       12.52805
C         -5.35685       -0.91081        1.61395
H        -13.72708      -17.23672       13.67788
H        -10.66938      -10.43258       12.73088
S         -4.59137        0.86892       -0.42962
C         -7.83833       -5.16540        6.75245
H        -12.79013      -14.78894       13.41028
N         -6.76307       -3.34693        5.43474
H         -3.33564        2.99210       -2.20776
H         -9.79663       -9.16517        8.96875
O         -1.05021        7.32951      -14.00733
S         -6.45057       -1.70686        2.63450
H         -9.19080       -7.37089        7.15849
C         -5.68920       -0.08048        0.43654
C        -10.63732       -8.24938       11.46630
C         -4.20744        3.11277       -2.83724
C         -7.67902       -2.84474        7.63347
H         -3.38260        4.57479       -4.24805
H        -10.73295       -8.24691       12.57266
H         -7.04433       -1.93470        7.69196
H         -0.32620        9.73639      -13.26100
H         -7.83359       -3.22996        8.66454
H         -7.58444       -3.05090        4.88585
H         -0.94770        8.84791      -11.86405
O         -8.97467       -5.11915        6.30184
C         -4.23354        3.97890       -3.94512
C         -1.79093        8.25835      -13.72763
H          3.35167       16.34005      -16.11014
C         -1.25893        9.33880      -12.80641
C         -5.70468        1.48097       -1.53763
H        -11.47277       -8.82523       11.01372
H        -10.71458       -7.19253       11.13266
C         -5.41002        2.43965       -2.62522
O          0.64589       12.92294      -16.23870
O          3.13421       17.26671      -16.27981
C         -6.94765        0.07615       -0.13504
H         -8.66411       -2.56154        7.20377
C         -6.95429        0.93883       -1.24251
H          1.47410       15.09672      -16.88206
H         -0.48947       11.95359      -14.01651
O         -3.03748        8.26119      -14.24974
H         -0.74023       11.49361      -19.17973
C         -5.45077        3.97592       -4.61966
H         -1.13199       10.95196      -16.92471
O         -2.56339        8.96413      -10.11382
H         -7.83794       -0.41801        0.23107
C         -2.18937       10.54104      -12.48554
S         -4.88075        5.95708       -6.58849
C         -0.43101       13.48524      -16.09319
S         -6.49247        2.91164       -3.82489
H         -1.64766       11.20929      -11.78071
N         -1.43513       11.97238      -14.42772
C          1.87239       17.73404      -16.17223
C          0.52627       15.67155      -16.80638
O         -1.49252       12.10089      -19.21135
C         -5.79669        4.74217       -5.83600
C         -1.98408       11.65769      -16.81211
C         -3.55063        9.42182      -10.66878
H         -4.30794        8.33270       -8.19312
H          0.95652       16.38759      -14.79422
C         -2.45525       11.34949      -13.76456
C         -1.65201       12.67344      -15.69258
O          0.00286       15.24333      -19.18142
H         -3.69957        8.93658      -14.07065
C          0.73335       16.81930      -15.79328
H         -7.85318        1.16880       -1.79925
C          0.18048       16.15379      -18.20018
N         -0.55908       14.82146      -16.34140
N         -3.44249       10.14315      -11.82704
C         -2.26229       12.34154      -18.12838
O          1.65642       18.91871      -16.37360
H         -2.87994       11.05958      -16.54796
H         -0.22350       15.50928      -20.08400
N         -4.94819        8.21874       -8.99341
C         -5.96617        6.22776       -7.86091
C         -6.96023        4.55183       -6.56988
C         -4.93229        9.22520      -10.06146
O          0.05083       17.34390      -18.44997
O         -3.59643       11.44782      -14.19621
C         -5.86419        7.20103       -8.97966
H         -2.50999       13.37180      -15.56931
H         -4.33181       10.45827      -12.24030
C         -7.04859        5.36666       -7.69792
H         -1.48705       15.26036      -16.23415
H         -0.20823       17.40762      -15.71037
H         -5.60530        8.91528      -10.89092
H         -7.72597        3.83292       -6.31006
O         -3.19587       13.12267      -18.22127
H         -4.77781       10.93646       -8.70224
C         -5.43562       10.58427       -9.52608
O         -6.68409        7.10751       -9.88334
H         -7.89486        5.33334       -8.37192
H         -5.39206       11.33831      -10.34280
C         -6.85481       10.52046       -9.02734
O         -7.17313        9.73673       -7.97562
H         -8.07907        9.68602       -7.63951
O         -7.71910       11.19791       -9.56393
C        -15.06789      -24.34837       16.52028
H        -14.04767      -23.98409       14.62930
H        -13.03795      -23.71906       16.10561
C        -14.73040      -25.84559       16.56181
H        -15.05039      -23.94135       17.55554
H        -16.08893      -24.21273       16.10049
C        -15.70419      -26.61874       17.46256
H        -14.77305      -26.25711       15.52931
H        -13.69849      -25.97700       16.95626
C        -15.35929      -28.11449       17.48343
H        -15.64219      -26.21265       18.49644
H        -16.74341      -26.48723       17.08849
C        -16.29689      -28.89412       18.41485
H        -15.44234      -28.52095       16.45126
H        -14.31214      -28.24529       17.83557
C        -15.95194      -30.38951       18.41287
H        -17.34888      -28.76078       18.07899
H        -16.19795      -28.49495       19.44857
C        -16.86824      -31.17206       19.36118
H        -16.06476      -30.78833       17.38042
H        -14.89563      -30.52475       18.73475
C        -16.53221      -32.66116       19.34794
H        -16.74859      -30.78656       20.39731
H        -17.92815      -31.04179       19.05198
H        -17.20613      -33.20203       20.04536
H        -15.48185      -32.82430       19.67091
H        -16.66874      -33.07847       18.32742
