165
	Energy:     265.6815928
C        -11.55320      -14.50111       13.97595
N        -10.40187      -13.62882       13.82044
C        -10.45958      -12.38217       13.26884
O        -11.51549      -11.95455       12.82160
C         -9.21697      -11.49788       13.25010
H         -8.43719      -12.03184       12.66338
N         -9.51381      -10.19674       12.65057
C         -8.74106       -9.60976       11.68414
O         -7.75394      -10.19169       11.25629
C         -8.99061       -8.18470       11.19817
H         -8.17439       -7.57686       11.64374
C        -10.30400       -7.55592       11.68014
N         -8.93861       -8.10812        9.73914
C         -8.04225       -7.30322        9.08851
O         -7.26260       -6.62141        9.74321
C         -8.03147       -7.15426        7.56323
H         -9.08294       -6.98709        7.24079
N         -7.21889       -5.97832        7.24548
C         -7.70322       -4.84090        6.66512
O         -8.85491       -4.78937        6.25570
C         -6.83705       -3.59605        6.62312
H         -5.86764       -3.82465        7.11603
C         -7.49452       -2.49660        7.46299
N         -6.62135       -3.09055        5.26989
C         -5.36919       -2.88798        4.75964
O         -4.38323       -3.23356        5.39651
C         -5.15216       -2.16774        3.48014
C         -3.89725       -1.82284        2.98327
C         -3.94444       -1.05320        1.81837
C         -5.23670       -0.79096        1.38074
C         -5.58230        0.03872        0.21062
C         -6.85691        0.24218       -0.30682
C         -6.87704        1.10676       -1.41067
C         -5.62047        1.59999       -1.75566
C         -5.33631        2.55636       -2.84443
C         -4.11182        3.16360       -3.11769
C         -4.15555        4.05079       -4.20675
C         -5.41088        4.13087       -4.80145
C         -5.78552        4.93751       -5.97984
C         -7.00480        4.83458       -6.63629
C         -7.10714        5.66254       -7.75253
C         -5.97921        6.44668       -7.97906
C         -5.87018        7.40733       -9.10459
O         -6.71997        7.34305       -9.98381
N         -4.91582        8.38748       -9.14991
C         -4.88780        9.37898      -10.22982
H         -5.53957        9.04622      -11.06800
C         -5.41983       10.74079       -9.72897
C         -6.84564       10.66981       -9.24958
O         -7.71193       11.31699       -9.81925
O         -7.16755        9.91610       -8.17719
C         -3.49585        9.58779      -10.80879
O         -2.51246        9.16625      -10.21731
N         -3.37343       10.28723      -11.97743
C         -2.11643       10.71480      -12.60884
H         -1.62214       11.42133      -11.90607
C         -1.12776        9.54420      -12.86715
C         -1.58413        8.41875      -13.77398
O         -0.79676        7.51501      -14.00465
O         -2.81204        8.35574      -14.33446
C         -2.37564       11.47928      -13.91533
O         -3.50913       11.52298      -14.37838
N         -1.36465       12.12364      -14.57007
C         -1.57970       12.78498      -15.85619
H         -2.46440       13.45482      -15.76615
C         -1.85485       11.73103      -16.95610
C         -2.13681       12.37253      -18.29250
O         -3.09688       13.11611      -18.41836
O         -1.34231       12.13396      -19.35779
C         -0.38171       13.63021      -16.25493
O          0.71685       13.10304      -16.37003
N         -0.55204       14.95497      -16.53563
C          0.50945       15.83167      -17.00569
H          1.47691       15.28775      -17.05849
C          0.66594       17.00632      -16.01475
C          1.77818       17.95074      -16.40046
O          1.52523       19.12313      -16.62886
O          3.05597       17.52378      -16.48497
C          0.16395       16.27304      -18.41306
O         -0.00273       17.45269      -18.68917
O          0.02738       15.33700      -19.37665
S         -4.83833        6.09616       -6.77824
S         -6.46202        3.11121       -3.96448
S         -4.48418        0.94232       -0.69995
S         -6.32592       -1.52959        2.44427
C         -7.45470       -8.39504        6.81585
C         -8.20956       -9.69954        7.11507
C         -7.47371       -8.15482        5.29590
C         -8.64632      -11.29643       14.69125
C         -7.32873      -10.50701       14.65395
C         -9.63842      -10.61303       15.64846
H         -9.50495      -13.97100       14.19472
H        -10.29942       -9.67503       13.05840
H        -10.38380       -6.51851       11.29079
H        -10.33289       -7.49092       12.78826
H        -11.17449       -8.13979       11.31134
H         -9.63865       -8.63596        9.19727
H         -6.23380       -5.99074        7.55400
H         -6.84520       -1.59549        7.48110
H         -7.63961       -2.84512        8.50846
H         -8.48202       -2.21218        7.03925
H         -7.44503       -2.79066        4.72656
H         -2.96644       -2.09337        3.46479
H         -3.05490       -0.68833        1.32206
H         -7.74960       -0.21576        0.09858
H         -7.78925        1.37473       -1.92724
H         -3.21182        2.98056       -2.54550
H         -3.29169        4.60277       -4.55301
H         -7.79973        4.16657       -6.33188
H         -7.99336        5.69272       -8.37325
H         -4.26271        8.49167       -8.35816
H         -5.37447       11.47628      -10.56231
H         -4.78024       11.12094       -8.90340
H         -8.07728        9.86167       -7.85211
H         -4.26078       10.56767      -12.42033
H         -0.19806        9.96888      -13.30312
H         -0.82671        9.09255      -11.90207
H         -3.50608        9.00790      -14.19409
H         -0.42838       12.15170      -14.13703
H         -2.73241       11.10615      -16.69303
H         -0.97574       11.05479      -17.03755
H         -0.56978       11.55468      -19.30018
H         -1.49627       15.36363      -16.45136
H         -0.29571       17.56414      -15.95445
H          0.89186       16.60299      -15.00451
H          3.30223       16.60855      -16.29397
H         -0.19839       15.57644      -20.28677
H         -6.39609       -8.54021        7.12686
H         -9.28322       -9.60553        6.84474
H         -8.11267       -9.98017        8.18210
H         -7.76907      -10.53749        6.53320
H         -8.51500       -8.00852        4.93588
H         -7.03090       -9.02277        4.76188
H         -6.87466       -7.25982        5.02675
H         -8.40141      -12.29052       15.12081
H         -6.89634      -10.43267       15.67461
H         -7.48737       -9.47869       14.26601
H         -6.59018      -11.02556       14.00579
H         -9.19574      -10.54405       16.66521
H        -10.57561      -11.20235       15.72770
H         -9.88416       -9.58472       15.31179
C        -11.28498      -15.85799       13.32136
H        -12.47792      -14.05371       13.55096
H        -11.71772      -14.65618       15.06473
C        -12.43735      -16.83610       13.58770
H        -10.35179      -16.28223       13.75381
H        -11.14299      -15.72182       12.22711
C        -12.13343      -18.21475       12.99033
H        -13.37874      -16.43568       13.15106
H        -12.57187      -16.94462       14.68710
C        -13.25374      -19.21547       13.29973
H        -11.18293      -18.59523       13.42593
H        -12.01039      -18.12129       11.88893
C        -12.92151      -20.59827       12.72596
H        -14.20907      -18.85033       12.86233
H        -13.37441      -19.29941       14.40270
C        -14.02455      -21.61256       13.04814
H        -11.96242      -20.95407       13.16365
H        -12.80383      -20.51958       11.62262
C        -13.68483      -22.98946       12.48405
H        -14.98745      -21.27089       12.60983
H        -14.14405      -21.69746       14.15046
H        -13.57940      -22.93900       11.37935
H        -14.49678      -23.70506       12.73187
H        -12.73554      -23.36334       12.92401
