165
	Energy:     272.6050173
C        -11.47883      -14.44859       13.77933
N        -10.33837      -13.55514       13.66959
C        -10.40307      -12.30576       13.12357
O        -11.44735      -11.90300       12.62847
C         -9.18933      -11.38372       13.17884
H         -8.36125      -11.88654       12.63229
N         -9.49368      -10.08541       12.57565
C         -8.69622       -9.47205       11.64614
O         -7.67991      -10.02781       11.25343
C         -8.96137       -8.05115       11.15462
H         -8.16293       -7.42825       11.61179
C        -10.29318       -7.44503       11.61464
N         -8.88793       -7.97782        9.69655
C         -7.98967       -7.16843        9.05387
O         -7.22611       -6.47490        9.71500
C         -7.95670       -7.03316        7.52723
H         -9.00426       -6.87169        7.18961
N         -7.14162       -5.85885        7.20672
C         -7.62200       -4.72876        6.60819
O         -8.77093       -4.68361        6.19035
C         -6.75955       -3.48075        6.55853
H         -5.78798       -3.70128        7.05119
C         -7.42137       -2.38245        7.39624
N         -6.55085       -2.97530        5.20311
C         -5.30238       -2.72624        4.70405
O         -4.31066       -3.02700        5.35465
C         -5.09923       -1.99825        3.42515
C         -3.85579       -1.56745        2.96797
C         -3.91693       -0.80745        1.79776
C         -5.20766       -0.64134        1.31124
C         -5.56264        0.15025        0.11639
C         -6.81430        0.22668       -0.48570
C         -6.84444        1.07835       -1.60129
C         -5.62192        1.69174       -1.86794
C         -5.35367        2.66641       -2.94567
C         -4.18973        3.41556       -3.10783
C         -4.23037        4.28633       -4.20904
C         -5.41897        4.21118       -4.92807
C         -5.76342        4.97399       -6.14506
C         -6.88222        4.73408       -6.93250
C         -6.97118        5.57265       -8.04463
C         -5.93428        6.49811       -8.13812
C         -5.82661        7.50547       -9.22458
O         -6.61067        7.41706      -10.15942
N         -4.92541        8.53507       -9.18285
C         -4.85619        9.55163      -10.23856
H         -5.52655        9.27318      -11.08107
C         -5.31283       10.92456       -9.70688
C         -6.73914       10.90520       -9.22443
O         -7.57422       11.61576       -9.76412
O         -7.09530       10.12089       -8.18481
C         -3.45427        9.67727      -10.81280
O         -2.50473        9.22372      -10.19335
N         -3.27929       10.29455      -12.02323
C         -1.98394       10.51430      -12.68775
H         -1.39097       11.20818      -12.05264
C         -1.17026        9.19337      -12.84253
C         -1.80122        8.06452      -13.63640
O         -1.15542        7.03962      -13.78442
O         -3.03674        8.12444      -14.18172
C         -2.14386       11.16507      -14.07395
O         -3.26173       11.32270      -14.53742
N         -1.03041       11.51895      -14.79519
C         -0.95747       11.92976      -16.20476
H         -0.27664       11.19217      -16.68516
C         -2.28798       11.85847      -16.99954
C         -2.09724       12.15282      -18.46796
O         -2.68535       13.09276      -18.97854
O         -1.29942       11.37980      -19.23571
C         -0.32513       13.30177      -16.34474
O          0.76237       13.38665      -16.89769
N         -0.97835       14.42527      -15.92295
C         -0.48938       15.79129      -16.11318
H         -1.25519       16.48011      -15.69067
C          0.82550       16.01953      -15.33074
C          1.27510       17.46059      -15.36606
O          0.55119       18.33406      -14.91459
O          2.47175       17.80220      -15.89064
C         -0.35329       16.13106      -17.59118
O         -0.02599       17.25913      -17.92932
O         -0.61972       15.20973      -18.54260
S         -4.88895        6.25448       -6.82963
S         -6.42110        3.07591       -4.18195
S         -4.50174        1.15379       -0.73074
S         -6.27898       -1.45026        2.34317
C         -7.36898       -8.28076        6.79923
C         -8.12390       -9.58472        7.10177
C         -7.37149       -8.05564        5.27699
C         -8.70914      -11.17923       14.65252
C         -7.42436      -10.33822       14.69994
C         -9.78033      -10.54779       15.55974
H         -9.45185      -13.87733       14.08430
H        -10.31110       -9.58799       12.95017
H        -10.38358       -6.40795       11.22681
H        -10.34176       -7.38595       12.72262
H        -11.14777       -8.04171       11.22942
H         -9.57427       -8.51605        9.14761
H         -6.16007       -5.86595        7.52638
H         -6.77602       -1.47827        7.41031
H         -7.56136       -2.72834        8.44331
H         -8.41105       -2.10400        6.97401
H         -7.37929       -2.69955        4.65431
H         -2.92495       -1.76860        3.48234
H         -3.03811       -0.38387        1.32971
H         -7.68240       -0.31600       -0.13521
H         -7.74119        1.25236       -2.18129
H         -3.33702        3.34815       -2.44508
H         -3.40968        4.93990       -4.47399
H         -7.61365        3.96506       -6.72159
H         -7.78315        5.50795       -8.75735
H         -4.30761        8.63162       -8.36302
H         -5.22698       11.67522      -10.52401
H         -4.65413       11.24789       -8.87193
H         -8.00598       10.09593       -7.85861
H         -4.13617       10.62400      -12.49045
H         -0.19560        9.42946      -13.31749
H         -0.90999        8.79030      -11.84617
H         -3.63097        8.87765      -14.10435
H         -0.11628       11.42557      -14.32822
H         -3.02141       12.58403      -16.58640
H         -2.71007       10.83335      -16.92390
H         -0.83414       10.61068      -18.87931
H         -1.89603       14.31545      -15.46595
H          0.66410       15.74147      -14.26715
H          1.63074       15.37363      -15.73563
H          3.07448       17.14402      -16.26363
H         -0.53992       15.41464      -19.48516
H         -6.31376       -8.42074        7.12375
H         -9.19518       -9.49550        6.82036
H         -8.03584       -9.85744        8.17160
H         -7.67621      -10.42658        6.53130
H         -8.40908       -7.91494        4.90421
H         -6.92139       -8.92811        4.75665
H         -6.77105       -7.16230        5.00567
H         -8.45079      -12.16909       15.08422
H         -7.05489      -10.26028       15.74483
H         -7.60225       -9.31180       14.31509
H         -6.62973      -10.81821       14.08976
H         -9.39921      -10.47550       16.60087
H        -10.69646      -11.17415       15.57962
H        -10.04806       -9.52548       15.22178
C        -11.17173      -15.80856       13.14580
H        -12.39320      -14.01722       13.31712
H        -11.68411      -14.60047       14.86164
C        -12.33285      -16.78431       13.38495
H        -10.25293      -16.22385       13.61587
H        -10.99211      -15.68295       12.05592
C        -12.02757      -18.17634       12.81988
H        -13.25801      -16.38522       12.91363
H        -12.50311      -16.87647       14.48097
C        -13.17719      -19.14790       13.11933
H        -11.09612      -18.56341       13.28925
H        -11.87282      -18.10535       11.72091
C        -12.87304      -20.55217       12.58458
H        -14.11246      -18.76885       12.65131
H        -13.32721      -19.20554       14.22046
C        -14.01759      -21.52077       12.90694
H        -11.93574      -20.92715       13.05215
H        -12.72925      -20.50321       11.48271
C        -13.71895      -22.92269       12.38376
H        -14.95902      -21.15633       12.44097
H        -14.16263      -21.57435       14.00825
H        -13.59141      -22.90409       11.28050
H        -14.56251      -23.60051       12.63305
H        -12.79347      -23.32061       12.85209
