189
	Energy:     320.7286086
O        -41.63114        1.00578      -20.06642
O        -35.71329        0.66770      -15.00891
H        -47.66667       -2.82595      -21.87074
O        -46.82914       -2.59852      -22.29902
O        -40.17826       -1.11056      -18.91509
C        -35.01146        0.37870      -15.96560
C        -40.96748        0.54691      -20.98490
H        -31.08280       -1.49257      -11.04120
H        -42.53293       -1.67559      -20.22318
H        -31.65401       -3.13572      -10.52304
H        -30.16424       -2.45096       -9.82382
C        -30.76177       -2.51704      -10.75495
O        -34.19160       -1.58133      -14.19431
H        -44.26871       -1.48172      -22.16053
H        -39.36120        1.75593      -20.71403
H        -36.58633       -1.93255      -15.64311
O        -33.78448        0.93027      -16.07657
H        -38.26364       -1.46357      -17.57719
C        -45.98055       -3.55345      -22.73771
O        -26.57329       -0.44769       -9.14976
O        -39.74024        1.04289      -21.24700
H        -24.71896        0.44059       -7.90587
H        -36.44696       -0.07138      -17.42512
H        -35.34709       -4.22525      -13.39403
H        -42.45260       -0.12310      -22.29577
C        -41.85637       -1.86217      -21.08636
C        -41.53066       -0.54468      -21.84222
C        -35.53535       -0.55778      -17.01711
H        -34.06317       -4.71060      -12.21925
H        -32.64086       -2.85659      -12.50720
N        -43.87784       -2.37747      -22.49095
C        -39.87999       -2.12201      -19.53109
O        -22.36643        0.64800       -6.94895
O        -46.26397       -4.73349      -22.59236
C        -35.88046       -1.97929      -16.50157
C        -34.53245       -4.95295      -13.19515
H        -39.82733       -4.16986      -17.68311
H        -45.54602       -1.43342      -24.42254
N        -37.88138       -2.30482      -18.03230
C        -33.94233       -2.51891      -14.93511
C        -24.25853       -0.21498       -8.68023
C        -42.64600       -2.76642      -22.04346
C        -44.68940       -3.16708      -23.41160
N        -40.63856       -2.53212      -20.59763
C        -25.44985       -0.81734       -9.46312
H        -17.99597        0.45562       -3.70411
C        -22.35812       -0.56171       -7.13308
H        -34.99608       -5.95968      -13.11829
S        -20.13996       -0.49415       -5.42860
N        -32.09467       -3.13539      -13.33255
H        -33.20331        0.73550      -16.82474
H        -38.57474       -5.68726      -16.39295
C        -36.63748       -2.72015      -17.62548
C        -38.67418       -2.96725      -19.08853
C        -17.52052       -0.49961       -3.52486
C        -29.94469       -3.15075      -11.88975
C        -44.98891       -2.35920      -24.68778
H        -15.87741        0.24084       -2.28986
O        -27.70411       -2.94790      -10.15055
N        -34.68470       -2.73667      -16.07263
C        -39.23407       -4.34085      -18.60779
C        -16.35508       -0.61609       -2.74626
N        -23.31025       -1.11230       -7.97902
C        -21.27693       -1.30379       -6.38916
H        -24.20000        1.40062      -10.16316
H        -11.49727        0.07306        0.70431
H        -34.80621       -0.65173      -17.85090
C        -23.49869        0.68554       -9.68072
C        -32.84776       -3.52576      -14.54173
H        -40.82587       -0.77576      -22.67094
C        -27.63142       -2.38630      -11.23371
H         -9.33512        0.10034        2.08603
N        -28.69597       -2.41319      -12.11290
H        -22.70389        1.28987       -9.20529
C        -30.73324       -3.32814      -13.21038
C        -19.21683       -1.81158       -4.92919
C        -17.99920       -1.70325       -4.04707
C        -10.89247       -0.81247        0.84950
C        -33.49539       -4.93613      -14.33253
O        -38.04512       -5.96487      -17.15319
S        -13.60302       -1.22568       -1.02840
C         -9.70419       -0.79798        1.60783
H        -39.92415       -4.76911      -19.36383
H        -45.62633       -2.96288      -25.37098
O        -43.43527       -0.68303      -25.62012
H        -29.66016       -4.18339      -11.58971
C        -15.86884       -1.91585       -2.62666
O        -42.18455       -3.84323      -22.39741
H        -23.36337       -2.13252       -8.11307
H        -26.63487       -0.64124      -11.91259
C        -20.94849       -2.66178       -6.32485
H        -40.34617       -3.40760      -21.05346
C        -43.73191       -1.98453      -25.42025
H        -44.16303       -4.10133      -23.71152
C        -38.20439       -5.40967      -18.37339
N        -25.28099       -1.55414      -10.60358
C        -19.80596       -2.94234       -5.51436
C        -26.33115       -1.67850      -11.64545
C        -14.62301       -2.29310       -1.87081
O         -7.33845       -1.37740        3.17242
O        -36.11431       -3.68050      -18.16873
H        -28.58634       -1.93989      -13.02178
H        -34.41658       -3.56244      -16.62367
S        -16.93258       -2.92233       -3.51031
H        -38.03724       -3.08120      -19.99348
C        -11.22589       -2.06018        0.32300
C        -12.44987       -2.35511       -0.50133
H        -34.02272       -5.23359      -15.26327
H        -31.88352       -5.83324      -13.14065
C         -9.05295       -2.03112        1.69442
H        -42.63573       -0.41424      -26.09418
C        -32.43403       -6.01694      -14.08644
H        -21.50239       -3.43041       -6.84711
H        -32.15364       -3.59956      -15.40761
C         -7.78601       -2.28207        2.48271
H        -23.02096        0.07122      -10.47327
O        -30.10507       -3.76441      -14.16554
C        -14.06524       -3.56619       -1.73502
H        -19.42337       -3.94419       -5.37145
C        -12.86491       -3.59991       -0.98117
S         -9.99900       -3.14047        0.80952
H        -32.91598       -7.01566      -14.01773
H        -24.32448       -1.86314      -10.82088
H         -6.32583       -3.79724        4.39965
O        -42.98552       -2.85479      -25.84370
O        -37.51835       -5.80285      -19.30408
H        -14.50535       -4.45279       -2.17157
C        -25.76173       -2.33549      -12.94807
N         -7.15977       -3.49798        2.47563
H         -4.79402       -2.06750        3.45454
H        -12.31936       -4.51524       -0.79390
H        -31.71254       -6.04210      -14.93062
C         -6.02621       -3.88486        3.33224
H        -24.96132       -0.47670      -13.76610
H        -26.55704       -2.34785      -13.72237
C        -24.61598       -1.51213      -13.55968
H         -3.81977       -3.90183        4.99364
H        -26.17964       -4.40344      -12.36529
C         -4.68310       -3.12198        3.12354
C        -25.32551       -3.79302      -12.72722
H         -7.55569       -4.23774        1.87713
H        -23.72732       -1.46627      -12.89976
H         -2.18796       -2.16345        4.35772
H        -24.49963       -3.86254      -11.99025
C         -3.53577       -3.82674        3.92073
H         -5.82504       -4.96038        3.13355
C         -2.13810       -3.14809        3.84418
H         -4.41306       -3.13384        2.04627
H        -24.29935       -1.96451      -14.52397
H         -1.30749       -4.28586        5.53577
H        -24.97918       -4.23515      -13.68585
H          0.34578       -2.48798        5.17271
H         -3.44080       -4.85780        3.51567
C         -1.02886       -4.03542        4.48869
H         -1.86609       -2.98017        2.78012
C          0.37865       -3.37743        4.50655
H          1.22697       -4.76278        5.98836
H         -0.97321       -4.98129        3.90693
C          1.48928       -4.35461        4.98788
H          0.64155       -3.04128        3.48043
C          2.88449       -3.68293        5.08405
H          1.54224       -5.19940        4.26678
C          4.01679       -4.68824        5.42187
H          2.84355       -2.89397        5.86642
H          3.13036       -3.20402        4.11153
C          5.38912       -3.98981        5.58577
H          4.08234       -5.43377        4.59932
H          3.77748       -5.22435        6.36610
C          6.54695       -4.99029        5.81275
H          5.33153       -3.29246        6.45004
H          5.61467       -3.40093        4.67011
C          7.89466       -4.26735        6.03251
H          6.62765       -5.65107        4.92179
H          6.33085       -5.62031        6.70308
C          9.07047       -5.25399        6.18425
H          7.82119       -3.64279        6.94983
H          8.10312       -3.60229        5.16604
C         10.39865       -4.51732        6.44520
H          9.16268       -5.85259        5.25128
H          8.87089       -5.94513        7.03222
C         11.57881       -5.49692        6.55521
H         10.31450       -3.94076        7.39276
H         10.59917       -3.80729        5.61293
C         12.89190       -4.76580        6.83793
H         11.68461       -6.06087        5.60278
H         11.39348       -6.22038        7.37853
H         13.12193       -4.04593        6.02375
H         13.72356       -5.49997        6.90350
H         12.83129       -4.21747        7.80223
