140
	Energy:     263.0020602
C        -13.19272       -6.24403        9.01719
C        -13.05624       -7.33804        8.16195
C        -11.72351       -7.70046        7.93041
C        -10.80809       -6.89581        8.59914
S        -11.65321       -5.73540        9.47686
H        -13.88031       -7.87207        7.71127
H        -11.44271       -8.52817        7.29245
C         -9.34374       -7.03035        8.55675
C         -8.43395       -6.21662        9.22382
C         -7.10115       -6.57984        9.00428
C         -6.96112       -7.68028        8.16505
S         -8.49284       -8.20121        7.69388
H         -8.71914       -5.38374        9.85297
H         -6.26817       -6.05192        9.44957
C         -5.68719       -8.29336        7.75824
C         -5.54051       -9.39998        6.92797
C         -4.20463       -9.76354        6.72040
C         -3.30068       -8.94224        7.38663
S         -4.15957       -7.76603        8.23226
H         -6.37050       -9.93387        6.48420
H         -3.91327      -10.60235        6.10203
C         -1.83551       -9.07309        7.36575
C         -0.93599       -8.24549        8.02753
C          0.40138       -8.60805        7.83237
C          0.55928       -9.72702        7.01399
S         -0.96959      -10.25569        6.53793
H         -1.23151       -7.40157        8.63697
H          1.21300       -8.05775        8.28584
C        -14.44835       -5.60534        9.47679
C          1.82917      -10.37628        6.61054
O        -14.36765       -4.65347       10.24037
O          1.77427      -11.36362        5.89114
N        -15.66962       -6.05882        9.06930
N          3.03622       -9.89489        7.02751
C        -16.92932       -5.46514        9.50343
H        -15.72433       -6.85918        8.42318
C        -17.67995       -4.93800        8.27622
C          4.31076      -10.50063        6.67010
H          3.07096       -9.06118        7.63117
C          5.12080       -9.49220        5.84636
H          4.55637       -9.22255        4.92828
H          6.09010       -9.93612        5.53385
H          5.30419       -8.56194        6.42607
C          4.99218      -10.98012        7.94369
H        -16.74794       -4.61133       10.19201
C        -17.76891       -6.48308       10.25228
O        -17.36572       -7.63273       10.37040
O          4.40140      -11.81666        8.61293
H          4.16596      -11.39446        6.02432
N        -18.95839       -6.10856       10.80418
N          6.20902      -10.51062        8.35643
C        -19.83255       -7.02188       11.53629
H        -19.25454       -5.12669       10.70365
C        -21.21870       -7.12854       10.83475
C          6.86400      -10.95310        9.58319
H          6.70559       -9.80930        7.79215
H          6.24036      -11.71350       10.10191
C          7.01448       -9.77929       10.59932
C          8.18993      -11.61133        9.23573
C        -21.06700       -7.66121        9.40220
C        -21.99369       -5.79851       10.82176
H        -21.83211       -7.86741       11.39743
H        -20.47749       -6.95819        8.77550
H        -22.06590       -7.79616        8.93510
H        -20.55495       -8.64692        9.41202
H        -21.46328       -5.02189       10.23349
H        -22.14814       -5.42448       11.85559
H        -22.99452       -5.94910       10.36378
C          5.62803       -9.27197       11.02872
C          7.85223       -8.59039       10.09197
H          7.51543      -10.18144       11.50832
H          5.07635       -8.84287       10.16479
H          5.72875       -8.48668       11.80817
H          5.02833      -10.10281       11.45781
H          7.39396       -8.12440        9.19517
H          8.89068       -8.89348        9.85784
H          7.91971       -7.81389       10.88373
C        -19.98475       -6.62448       13.00347
H        -19.39503       -8.04474       11.54762
O        -20.68502       -7.34197       13.69997
H        -17.05559       -4.18438        7.75078
H        -18.63295       -4.44957        8.56785
H        -17.90532       -5.76806        7.57243
N        -19.36052       -5.51885       13.52820
H        -18.77543       -4.94915       12.90177
C        -19.40454       -5.00818       14.90409
O          9.02516      -10.96329        8.62638
N          8.42060      -12.91298        9.59851
H          7.66932      -13.39597       10.11534
C          9.61416      -13.73428        9.36259
C        -19.97647       -3.60479       14.84312
O        -21.14210       -3.45635       14.50138
H        -18.35126       -4.97977       15.25992
C        -20.20079       -5.87870       15.91505
H        -21.26783       -5.89897       15.60237
C        -20.16495       -5.45109       17.37003
H        -19.79167       -6.91164       15.89936
N        -19.19670       -2.52468       15.13518
H        -18.21004       -2.67678       15.39664
C        -19.67434       -1.15067       15.09324
O        -19.42457       -4.41891       17.83128
O        -20.82364       -6.09260       18.17274
H        -18.82373       -3.90011       17.28723
C         10.72326      -13.06360        8.50579
H          9.26990      -14.62940        8.79999
C         10.16104      -14.13386       10.72190
O         10.59386      -13.25188       11.44565
H         10.27987      -12.72853        7.54357
C         11.91314      -13.92435        8.12627
H         11.11502      -12.18144        9.05808
O         12.01285      -15.23933        8.42152
O         12.81943      -13.40431        7.49548
H         11.32194      -15.74887        8.85673
N         10.11988      -15.44223       11.12644
H          9.67123      -16.10549       10.47606
C         10.57694      -16.03668       12.39282
C         11.23519      -15.06469       13.41455
C         11.41284      -17.28218       12.09908
H          9.66188      -16.42101       12.89548
O         10.94050      -18.13939       11.36868
O         12.63404      -17.51226       12.63612
H         13.07524      -16.93174       13.26692
C         12.55024      -14.40736       13.02577
H         11.41280      -15.63336       14.35344
H         10.50156      -14.27041       13.66982
O         13.08184      -13.65771       13.82870
O         13.15741      -14.61077       11.83408
H         12.80200      -15.18202       11.14261
H        -20.74421       -1.11695       14.79479
C        -18.89002       -0.40725       14.02390
C        -19.57940       -0.55554       16.51537
O        -18.98548       -0.78793       12.86771
O        -18.07567        0.63997       14.28743
H        -20.14387       -1.21205       17.21275
C        -20.18161        0.82532       16.61933
H        -18.51810       -0.54662       16.84884
H        -17.89424        0.97546       15.17275
O        -21.48433        1.03900       16.33511
O        -19.49425        1.76159       16.99491
H        -22.07494        0.32214       16.06620
