140
	Energy:     285.2550487
C        -10.51195       -5.02267        9.85784
C         -9.57990       -4.55075       10.77922
C         -8.34536       -5.20990       10.71240
C         -8.30359       -6.20483        9.74101
S         -9.80644       -6.28144        8.98471
H         -9.76853       -3.72663       11.45494
H         -7.50140       -4.93964       11.33337
C         -7.11762       -6.98542        9.34896
C         -7.08358       -7.97478        8.37144
C         -5.79644       -8.46464        8.12169
C         -4.81460       -7.85785        8.89867
S         -5.55076       -6.73466        9.91844
H         -7.95567       -8.31437        7.82825
H         -5.59084       -9.21422        7.36895
C         -3.36315       -8.08136        8.77777
C         -2.37325       -7.42548        9.50318
C         -1.07425       -7.76103        9.09996
C         -1.04003       -8.68297        8.05816
S         -2.62332       -9.09480        7.65236
H         -2.57757       -6.70197       10.28145
H         -0.19045       -7.32106        9.54271
C          0.16925       -9.16396        7.36627
C          0.19874      -10.08765        6.32676
C          1.48217      -10.30205        5.80889
C          2.46974       -9.54429        6.43436
S          1.74118       -8.62288        7.64710
H         -0.68126      -10.58238        5.93696
H          1.67585      -10.97718        4.98553
C        -11.84733       -4.43086        9.60488
C          3.90337       -9.51970        6.05131
O        -12.18035       -3.43613       10.23352
O          4.27532      -10.21844        5.11915
N        -12.65614       -4.93439        8.62840
N          4.78838       -8.71004        6.70197
C        -13.87339       -4.27429        8.17001
H        -12.36555       -5.78608        8.12455
C        -13.67631       -3.92570        6.68701
C          6.19468       -8.57621        6.32675
H          4.45337       -8.13531        7.49030
C          6.45114       -7.11223        5.94942
H          5.78000       -6.82042        5.11341
H          7.49571       -6.95417        5.61258
H          6.24985       -6.44620        6.81588
C          7.10364       -9.02120        7.46357
H        -14.04905       -3.32553        8.72243
C        -15.10181       -5.14660        8.36250
O        -14.99683       -6.22529        8.92505
O          6.58506       -9.43844        8.48035
H          6.43289       -9.20695        5.44282
N        -16.31557       -4.69278        7.92566
N          8.46692       -8.96816        7.31508
C        -17.60693       -5.38107        7.98892
H        -16.34522       -3.75101        7.50756
C        -17.71896       -6.61941        7.03578
C          9.56177       -9.33922        8.23812
H          8.79906       -8.61525        6.40486
H         10.18723       -8.42531        8.34675
C          9.22043       -9.70049        9.73596
C         10.49280      -10.35137        7.53873
C        -16.88833       -7.84703        7.43317
C        -17.39679       -6.22116        5.58793
H        -18.77862       -6.95143        7.04936
H        -15.80501       -7.67669        7.29439
H        -17.15281       -8.70208        6.77470
H        -17.10603       -8.14512        8.48039
H        -16.33837       -5.89588        5.49508
H        -18.05645       -5.38945        5.26099
H        -17.56368       -7.08101        4.90429
C          8.54406      -11.06300        9.97423
C          8.55414       -8.53933       10.50423
H         10.18776       -9.78996       10.26836
H          7.55077      -11.19104        9.52166
H          8.43562      -11.23639       11.06617
H          9.19228      -11.86959        9.58965
H          7.54489       -8.26241       10.16733
H          9.18639       -7.62897       10.42308
H          8.48085       -8.79668       11.58261
C        -18.06797       -5.64557        9.41595
H        -18.35067       -4.65079        7.59336
O        -17.29629       -5.45783       10.33897
H        -12.77880       -3.28110        6.57172
H        -14.54001       -3.36800        6.27263
H        -13.52930       -4.84962        6.08684
N        -19.35802       -6.04657        9.63308
H        -19.93118       -6.21013        8.79158
C        -20.07485       -6.28281       10.89533
O         10.27339      -10.64416        6.37208
N         11.58040      -10.88495        8.17687
H         11.73895      -10.65397        9.16475
C         12.63736      -11.69949        7.56789
C        -21.40997       -5.54369       10.86468
O        -21.63094       -4.73544        9.97117
H        -20.33512       -7.36425       10.88925
C        -19.28980       -6.02578       12.21833
H        -18.38877       -6.67677       12.22177
C        -18.88651       -4.58994       12.50469
H        -19.91557       -6.36036       13.07221
N        -22.37838       -5.81558       11.78774
H        -22.18298       -6.52311       12.51259
C        -23.70323       -5.20284       11.73789
O        -19.79851       -3.60887       12.65783
O        -17.70797       -4.31716       12.66909
H        -20.74553       -3.77251       12.61584
C         12.15941      -12.90309        6.70747
H         13.24208      -12.10972        8.40854
C         13.61946      -10.82183        6.80824
O         13.36539       -9.63921        6.62256
H         11.59608      -12.58209        5.80820
C         11.36266      -13.93069        7.47011
H         13.06613      -13.42031        6.32821
O         10.10346      -13.68572        7.88124
O         11.84310      -15.03545        7.66894
H          9.64014      -12.87471        7.64383
N         14.81491      -11.34424        6.40275
H         15.01251      -12.33787        6.59452
C         15.86588      -10.56845        5.75867
C         17.15530      -10.60017        6.60689
C         16.13540      -11.13512        4.38404
H         15.56272       -9.50343        5.64240
O         15.98634      -10.42744        3.40060
O         16.54057      -12.41362        4.21718
H         16.67137      -13.01548        4.96265
C         16.96222       -9.98504        7.96740
H         17.50698      -11.64562        6.74361
H         17.95012      -10.03832        6.06704
O         17.61410       -9.00310        8.29036
O         16.08967      -10.53030        8.84182
H         15.95766      -10.15638        9.72456
H        -24.14571       -5.42207       10.73892
C        -23.61163       -3.70650       11.93409
C        -24.62564       -5.82435       12.80687
O        -23.98211       -2.95163       11.04722
O        -23.14234       -3.20214       13.09520
H        -24.20412       -5.63458       13.81860
C        -26.02496       -5.27556       12.73348
H        -24.67634       -6.92431       12.65460
H        -23.08248       -2.24772       13.24317
O        -26.55011       -4.62990       13.79609
O        -26.68662       -5.41714       11.71551
H        -27.44695       -4.26692       13.77308
