140
	Energy:     262.4585130
C        -32.22190       -0.30365       20.96193
C        -32.08346       -1.42417       20.14210
C        -30.74990       -1.78754       19.91699
C        -29.83577       -0.95719       20.55542
S        -30.68308        0.22705       21.39850
H        -32.90668       -1.97656       19.71249
H        -30.46758       -2.63422       19.30513
C        -28.37096       -1.08613       20.51122
C        -27.46214       -0.24647       21.14677
C        -26.12855       -0.61067       20.93342
C        -25.98699       -1.73784       20.13071
S        -27.51826       -2.28112       19.68407
H        -27.74857        0.60561       21.74907
H        -25.29611       -0.06440       21.35708
C        -24.71218       -2.35858       19.73855
C        -24.56483       -3.49199       18.94540
C        -23.22852       -3.85667       18.74322
C        -22.32477       -3.00949       19.37649
S        -23.18446       -1.80898       20.18652
H        -25.39468       -4.04412       18.52426
H        -22.93669       -4.71463       18.15197
C        -20.85919       -3.13508       19.35167
C        -19.95902       -2.28200       19.97939
C        -18.62132       -2.64585       19.78821
C        -18.46408       -3.79140       19.00746
S        -19.99354       -4.34166       18.55908
H        -20.25428       -1.41890       20.56147
H        -17.80899       -2.07725       20.21713
C        -33.47885        0.34337       21.40597
C        -17.19457       -4.44875       18.61701
O        -33.39978        1.31900       22.13914
O        -17.25057       -5.45950       17.93090
N        -34.69949       -0.12811       21.01742
N        -15.98613       -3.95013       19.01011
C        -35.96028        0.47282       21.43823
H        -34.75285       -0.94819       20.39639
C        -36.71798        0.95952       20.19875
C        -14.70973       -4.56258       18.66340
H        -15.95089       -3.10209       19.59323
C        -13.86130       -3.56170       17.84215
C        -14.47501       -3.15905       16.52020
H        -12.87764       -4.02509       17.61148
H        -13.69893       -2.63866       18.44028
C        -14.05095       -5.03765       19.95299
H        -35.78011        1.34767       22.10019
C        -36.79264       -0.52578       22.22037
O        -36.38476       -1.67011       22.37003
O        -14.65747       -5.86858       20.61526
H        -14.84985       -5.46761       18.03138
N        -37.98076       -0.13938       22.76694
N        -12.83943       -4.57246       20.38680
C        -38.84818       -1.03399       23.52945
H        -38.28046        0.83838       22.64021
C        -40.23810       -1.16420       22.83958
C        -12.20156       -5.02492       21.61713
H        -12.32753       -3.87979       19.82790
H        -12.82539       -5.80166       22.11013
C        -12.07970       -3.88585       22.65926
C        -10.84834       -5.63010       21.28999
C        -40.09333       -1.73755       21.42209
C        -41.01671        0.16293       22.79282
H        -40.84617       -1.88807       23.42703
H        -39.50927       -1.05144       20.77200
H        -41.09457       -1.88833       20.96494
H        -39.57867       -2.72132       21.45728
H        -40.49189        0.92353       22.17916
H        -41.16603        0.56627       23.81632
H        -42.01983       -0.00334       22.34538
C        -11.26410       -2.68732       22.23049
O        -11.70106       -1.84078       21.27347
O        -10.21167       -2.44339       22.79904
C        -38.99229       -0.59503       24.98516
H        -38.40778       -2.05496       23.56740
O        -39.68438       -1.29385       25.70876
H        -36.09915        1.69984       19.64847
H        -37.67215        1.45204       20.47949
H        -36.94216        0.10769       19.52106
N        -38.36552        0.52417       25.47493
H        -37.77898        1.07624       24.83434
C        -38.40895        1.06123       26.83868
O        -10.00939       -4.92348       20.75359
N        -10.59200       -6.93981       21.60067
H        -11.34927       -7.46790       22.06172
C         -9.36476       -7.71293       21.37584
C        -38.94949        2.47210       26.78381
O        -40.09263        2.65484       26.38698
H        -37.36335        1.08004       27.21736
C        -39.22050        0.25111       27.86322
N        -38.17048        3.52317       27.16802
H        -37.20934        3.33953       27.49589
C        -38.61875        4.90918       27.14589
C         -8.24491       -6.96844       20.59765
H         -9.65796       -8.58959       20.75795
C         -8.85944       -8.16122       22.73598
O         -8.48394       -7.30268       23.51761
H         -8.66107       -6.59975       19.63554
C         -7.01456       -7.77390       20.22588
H         -7.90295       -6.10317       21.20677
O         -6.88483       -9.09816       20.46211
O         -6.10136       -7.19701       19.65759
H         -7.57557       -9.64858       20.84462
N         -8.87432       -9.48831       23.07625
H         -9.27556      -10.13252       22.37755
C         -8.44817      -10.12933       24.33063
C         -7.86167       -9.18856       25.42286
C         -7.56193      -11.33335       24.01250
H         -9.36933      -10.56501       24.77717
O         -7.97773      -12.16808       23.22399
O         -6.35579      -11.55217       24.58698
H         -5.95829      -10.98981       25.26174
C         -6.55427       -8.47375       25.11893
H         -7.70255       -9.79640       26.34027
H         -8.62978       -8.43008       25.68552
O         -6.07862       -7.74815       25.97714
O         -5.89501       -8.60078       23.94445
H         -6.20474       -9.14834       23.21300
H        -39.66657        4.98119       26.77718
C        -37.74132        5.65262       26.14879
C        -38.62175        5.48844       28.59266
O        -37.79982        5.32538       24.97390
O        -36.86406        6.62180       26.49818
C        -39.43464        4.58939       29.54270
C        -39.23678        6.90256       28.63121
H        -37.58087        5.52169       28.98204
H        -36.67815        6.88511       27.40751
H        -40.29428        0.19974       27.58202
H        -39.15420        0.73828       28.86005
H        -38.80228       -0.77234       27.96827
H        -38.69358        7.62132       27.98936
H        -39.21425        7.30006       29.66843
H        -40.29334        6.87594       28.28752
H        -40.48935        4.50776       29.20182
H        -39.42335        5.00787       30.57192
H        -38.99850        3.56992       29.59667
O        -13.82609       -2.28910       15.71841
O        -15.54765       -3.61334       16.15452
H        -12.97259       -1.90918       15.97005
H        -11.61102       -4.32839       23.56701
H        -13.09206       -3.53169       22.94992
H        -12.57233       -1.92890       20.86461
