134
	Energy:     251.3317478
C        -24.51723       76.54031      -75.56256
C        -25.80517       76.05138      -75.35487
C        -25.90587       75.20878      -74.24173
C        -24.70010       75.03256      -73.57162
S        -23.50894       75.92299      -74.36142
H        -26.65562       76.28696      -75.97912
H        -26.83544       74.74447      -73.93965
C        -24.49373       74.20696      -72.37137
C        -23.28824       74.03030      -71.69970
C        -23.39228       73.18825      -70.58650
C        -24.67962       72.70220      -70.38222
S        -25.68765       73.31776      -71.58333
H        -22.35793       74.49388      -72.00047
H        -22.54936       72.94515      -69.95306
C        -25.10011       71.80017      -69.29867
C        -26.38863       71.31609      -69.09806
C        -26.49759       70.47550      -67.98513
C        -25.29491       70.29752      -67.30909
S        -24.09598       71.18400      -68.09379
H        -27.22951       71.56000      -69.73389
H        -27.42998       70.01425      -67.68725
C        -25.09895       69.47309      -66.10632
C        -23.90087       69.29179      -65.42463
C        -24.01630       68.45188      -64.30989
C        -25.31009       67.96870      -64.11157
S        -26.30005       68.59065      -65.32546
H        -22.96641       69.75117      -65.71904
H        -23.16992       68.21729      -63.68054
C        -24.07611       77.44821      -76.64315
C        -25.78440       67.06610      -63.03641
O        -22.90633       77.79240      -76.69576
O        -26.96552       66.74913      -63.02597
N        -24.93746       66.59510      -62.07508
C        -25.36260       65.71200      -60.99807
H        -23.94458       66.86870      -62.09178
C        -24.62200       64.37606      -61.13286
H        -24.85271       63.92012      -62.11926
H        -24.95253       63.66727      -60.34367
H        -23.52255       64.52420      -61.06703
C        -25.15849       66.42641      -59.67002
O        -25.75536       67.48156      -59.50561
H        -26.44796       65.48153      -61.07297
N        -24.35478       65.93470      -58.67817
C        -24.15655       66.61315      -57.39876
H        -23.85948       65.04507      -58.81785
H        -24.72851       67.56697      -57.37580
C        -22.65611       66.97861      -57.19706
C        -24.68218       65.79171      -56.22487
C        -22.16790       67.91743      -58.30996
C        -21.73862       65.74536      -57.10846
H        -22.56446       67.53162      -56.23533
H        -22.21510       67.41849      -59.30161
H        -21.11731       68.22443      -58.11971
H        -22.79485       68.83389      -58.34070
H        -21.73789       65.16734      -58.05519
H        -22.05569       65.07804      -56.27982
H        -20.69485       66.06547      -56.90324
O        -24.59697       66.29533      -55.11591
O        -23.73226       63.76337      -47.45830
H        -25.04739       60.96909      -46.78365
C        -24.66741       62.37708      -45.22537
C        -23.87212       61.43959      -44.35550
O        -24.93426       77.91056      -77.57890
H        -25.87152       77.67722      -77.59436
H        -25.48419       61.88342      -56.57453
H        -25.68522       61.55515      -54.81775
C        -25.23687       62.25371      -55.55679
H        -24.13265       62.23877      -55.44350
H        -26.89789       63.60303      -55.52837
O        -25.66717       63.21539      -51.10318
C        -25.79936       63.66802      -55.36071
H        -23.51991       63.99007      -54.06861
N        -25.26145       64.55838      -56.39567
N        -24.29084       64.18485      -53.41744
H        -21.53381       63.55637      -53.33412
C        -24.49827       63.56239      -51.02371
H        -21.67133       62.90046      -51.68493
C        -25.55895       64.10726      -53.92489
C        -21.48733       63.82578      -52.26057
C        -23.98282       64.59707      -52.04430
O        -26.52646       64.39373      -53.23476
H        -20.44527       64.14847      -52.05089
C        -22.46553       64.97073      -51.90004
H        -22.24923       65.99023      -53.83823
H        -24.54714       65.53474      -51.83991
C        -22.12308       66.20163      -52.75659
H        -22.28937       65.27712      -50.84615
H        -21.06889       66.50755      -52.58460
H        -22.77527       67.05775      -52.48176
O        -24.57186       59.75128      -51.05239
C        -23.40754       60.19084      -50.52876
O        -22.38264       60.08876      -51.18385
C        -23.35639       60.79284      -49.14741
H        -23.71148       60.02630      -48.42722
C        -24.21708       62.06868      -49.05163
C        -24.17837       62.63879      -47.64486
H        -25.27528       61.80032      -49.25879
N        -24.65696       61.90569      -46.59946
O        -24.21348       60.26693      -44.28437
N        -23.72662       63.05259      -50.01406
H        -22.75606       63.36098      -49.88480
H        -24.26090       63.40782      -45.14499
O        -18.82221       61.63060      -40.95121
C        -19.76471       61.02457      -41.43484
O        -19.83493       59.68883      -41.24071
H        -21.15769       62.64357      -41.61623
O        -24.14533       60.70184      -37.57504
C        -20.77762       61.80860      -42.24542
H        -20.22574       62.25404      -43.10192
C        -23.64751       60.02840      -38.46267
H        -20.50861       59.12215      -41.63105
H        -23.37466       57.49740      -37.98791
O        -22.99540       56.97666      -38.70523
O        -23.34479       61.31344      -40.89381
C        -21.99065       61.02132      -42.79961
C        -22.86061       60.50107      -41.66490
C        -24.57565       59.32534      -39.44081
C        -23.15434       57.24651      -40.02226
H        -21.60172       60.18862      -43.42671
N        -23.11520       59.15965      -41.55249
O        -22.68016       56.45959      -40.82683
C        -23.93146       58.45016      -40.55461
H        -25.25015       58.67070      -38.84674
N        -22.79007       61.88921      -43.65768
H        -25.22845       60.08493      -39.92160
H        -22.71554       58.55846      -42.28946
H        -24.78446       58.01078      -41.11774
O        -22.29882       59.94602      -38.52998
H        -21.82594       59.44150      -39.20284
H        -25.37908       64.20483      -57.35494
H        -22.52166       62.88123      -43.75304
H        -25.71610       62.40507      -44.86044
H        -22.30326       61.04565      -48.89032
H        -25.40298       59.79798      -50.56013
